LAMMPS data file via write_data, version 22 Aug 2018, timestep = 1000000

4000 atoms
1 atom types
3800 bonds
1 bond types
3600 angles
1 angle types

2.9271982691780380e+01 1.2072801730820655e+02 xlo xhi
2.9271982691780380e+01 1.2072801730820655e+02 ylo yhi
2.9271982691780380e+01 1.2072801730820655e+02 zlo zhi

Masses

1 104.11

Atoms # full

2248 113 1 0.0000000000000000e+00 4.7153326762152332e+01 3.3795782170488664e+01 4.6948053871851869e+01 0 -1 0
669 34 1 0.0000000000000000e+00 3.8065939637727077e+01 3.5048131877522557e+01 3.6384002479648011e+01 0 1 -1
670 34 1 0.0000000000000000e+00 3.6648585230018057e+01 3.7457977814976118e+01 3.1573662792014044e+01 0 1 -1
666 34 1 0.0000000000000000e+00 4.5423335860189638e+01 3.2356097725394505e+01 3.7780879136590976e+01 0 1 -1
673 34 1 0.0000000000000000e+00 4.1678990786378186e+01 3.0374271863482250e+01 2.9460365107158747e+01 0 1 -1
668 34 1 0.0000000000000000e+00 4.2322497438583241e+01 3.5950096176949017e+01 3.5565712604414102e+01 0 1 -1
822 42 1 0.0000000000000000e+00 5.0317610254426398e+01 3.7421333881888636e+01 3.7712342460083029e+01 1 0 0
3237 162 1 0.0000000000000000e+00 5.3246181860031314e+01 3.1830784910938377e+01 3.6769264936738999e+01 0 -1 0
3233 162 1 0.0000000000000000e+00 5.6426584352615293e+01 3.8380895880932172e+01 3.8188525634128197e+01 0 -1 0
823 42 1 0.0000000000000000e+00 4.7354436187122161e+01 3.8809406248086951e+01 3.3571307258026735e+01 1 0 0
3236 162 1 0.0000000000000000e+00 5.0690273239396276e+01 3.2186546956332165e+01 3.2581127513494039e+01 0 -1 0
3235 162 1 0.0000000000000000e+00 5.4551820879476395e+01 3.6072645005470179e+01 3.1703407129644759e+01 0 -1 0
3234 162 1 0.0000000000000000e+00 5.7674669747680852e+01 3.5404277047898418e+01 3.4481678309646909e+01 0 -1 0
1530 77 1 0.0000000000000000e+00 6.3385776915214137e+01 3.1578613397493182e+01 3.2228734190117272e+01 -1 0 0
1531 77 1 0.0000000000000000e+00 6.6301544279092738e+01 3.4637313261998408e+01 3.4350700399229218e+01 -1 0 0
2941 148 1 0.0000000000000000e+00 3.1093129377168331e+01 4.1449282523732883e+01 4.7281979863359787e+01 0 0 -1
3274 164 1 0.0000000000000000e+00 7.2884363290950404e+01 3.2977677110353177e+01 3.6701708271855196e+01 0 0 0
1729 87 1 0.0000000000000000e+00 3.0373173686938152e+01 3.8855241657738659e+01 3.1226986618303052e+01 0 0 0
3280 164 1 0.0000000000000000e+00 7.4369599422759492e+01 3.1017300925419114e+01 3.0685055371325102e+01 0 0 0
1730 87 1 0.0000000000000000e+00 3.0085272803389110e+01 4.3082093332025543e+01 3.0562293310440594e+01 0 0 0
2697 135 1 0.0000000000000000e+00 3.8851043489442596e+01 4.3107697754854875e+01 3.1772085203968441e+01 0 0 1
3457 173 1 0.0000000000000000e+00 5.5736275849413303e+01 5.1509539943157961e+01 3.0258377566474206e+01 0 -1 0
1610 81 1 0.0000000000000000e+00 3.2484033815604000e+01 4.0869263789941755e+01 3.5947863205523312e+01 0 0 1
1608 81 1 0.0000000000000000e+00 3.6543865660187230e+01 4.4591688370088235e+01 3.8229984855850894e+01 0 0 1
667 34 1 0.0000000000000000e+00 4.1533777242031888e+01 3.3197622769968220e+01 3.7444179032609867e+01 0 1 -1
867 44 1 0.0000000000000000e+00 4.9508526516100012e+01 4.4930387422065948e+01 3.3927897036939520e+01 -1 0 0
868 44 1 0.0000000000000000e+00 4.6833922477179563e+01 4.7157403735042706e+01 3.6224430754105285e+01 -1 0 0
1606 81 1 0.0000000000000000e+00 4.2413668969848814e+01 4.5363943393133660e+01 3.7982714997198514e+01 0 0 1
826 42 1 0.0000000000000000e+00 5.3705248481747887e+01 4.1709222875331648e+01 3.1796418829380354e+01 1 0 0
866 44 1 0.0000000000000000e+00 4.4801523636252846e+01 4.6752343601618236e+01 3.2014071111090537e+01 -1 0 0
869 44 1 0.0000000000000000e+00 5.1688784030190348e+01 4.4595791598740909e+01 3.7841670291312489e+01 -1 0 0
202 11 1 0.0000000000000000e+00 5.5106072330192617e+01 4.7766309892742186e+01 3.5648835415989751e+01 0 0 0
3232 162 1 0.0000000000000000e+00 6.0393286138427783e+01 3.9010369580116460e+01 3.6093541103966274e+01 0 -1 0
3230 162 1 0.0000000000000000e+00 6.0676967864460039e+01 4.5406078160476639e+01 3.7440583364744853e+01 0 -1 0
3229 162 1 0.0000000000000000e+00 6.4262253048680293e+01 4.3363794734630915e+01 3.7288902013737818e+01 0 -1 0
830 42 1 0.0000000000000000e+00 6.3222841859726486e+01 4.1950979123066389e+01 3.2137013670922549e+01 1 0 0
828 42 1 0.0000000000000000e+00 5.8434094812248695e+01 4.1476918727790412e+01 3.1121295241065152e+01 1 0 0
829 42 1 0.0000000000000000e+00 6.0797151733395950e+01 4.5230939131217376e+01 3.0475963407323928e+01 1 0 0
2255 113 1 0.0000000000000000e+00 6.1277993351350695e+01 3.1635999874687670e+01 4.7313698557202081e+01 0 -1 0
3610 181 1 0.0000000000000000e+00 5.2985780182751313e+01 6.5685587580441776e+01 3.0051962012429634e+01 0 0 0
213 11 1 0.0000000000000000e+00 3.6621560484195946e+01 6.5396518937402845e+01 4.7042697392094837e+01 0 0 0
453 23 1 0.0000000000000000e+00 6.9995534886801650e+01 4.3777874713489595e+01 3.5548442700482262e+01 -1 0 0
3892 195 1 0.0000000000000000e+00 6.6044261114587471e+01 6.9912407940420337e+01 3.0300619857666181e+01 0 0 0
2694 135 1 0.0000000000000000e+00 3.1925919250315150e+01 5.3362486439291231e+01 3.2063577652706073e+01 0 0 1
2695 135 1 0.0000000000000000e+00 3.3287750555602543e+01 4.7922544389291808e+01 3.3474519855846822e+01 0 0 1
278 14 1 0.0000000000000000e+00 3.6406128102132925e+01 5.6118301081744391e+01 3.5541904340857513e+01 0 0 0
1471 74 1 0.0000000000000000e+00 5.5660100673539198e+01 7.4634940358962155e+01 3.7504377663668521e+01 0 0 0
864 44 1 0.0000000000000000e+00 5.0022622751123272e+01 5.0603030585182168e+01 2.9446737532113215e+01 -1 0 0
2699 135 1 0.0000000000000000e+00 4.1456922989032954e+01 5.0612645238690988e+01 3.2417180143745135e+01 0 0 1
204 11 1 0.0000000000000000e+00 5.2457209025698234e+01 5.1033365344528960e+01 3.5317751205143708e+01 0 0 0
206 11 1 0.0000000000000000e+00 4.8612095341406707e+01 5.7610509237531382e+01 3.4425708507687283e+01 0 0 0
1605 81 1 0.0000000000000000e+00 3.9504897289279171e+01 4.9632260601519391e+01 3.8786923187584875e+01 0 0 1
205 11 1 0.0000000000000000e+00 4.7522574284921291e+01 5.2367941667357172e+01 3.6849154184228276e+01 0 0 0
3615 181 1 0.0000000000000000e+00 5.4828299216413008e+01 5.8331484789039919e+01 3.7680306820551834e+01 0 0 0
203 11 1 0.0000000000000000e+00 5.3541946697279961e+01 5.0990843392682521e+01 3.9158308832730668e+01 0 0 0
3929 197 1 0.0000000000000000e+00 5.9689179412687210e+01 7.0735386279467122e+01 4.6898301472961592e+01 0 -1 0
1582 80 1 0.0000000000000000e+00 6.4603741476907516e+01 4.8461865339418196e+01 3.4833191497491640e+01 0 -1 0
201 11 1 0.0000000000000000e+00 5.8349713396669067e+01 5.1596678662262775e+01 3.8118584177966262e+01 0 0 0
3458 173 1 0.0000000000000000e+00 5.9463867712309366e+01 5.0964001663732759e+01 3.2399026592580007e+01 0 -1 0
3460 173 1 0.0000000000000000e+00 6.1422529621056633e+01 5.4734845677638575e+01 3.1307715626961162e+01 0 -1 0
1581 80 1 0.0000000000000000e+00 6.3489198829643030e+01 5.1906242236545481e+01 3.8379781249015146e+01 0 -1 0
1584 80 1 0.0000000000000000e+00 7.2477103594056089e+01 5.1786717364130993e+01 3.2268501303470281e+01 0 -1 0
1583 80 1 0.0000000000000000e+00 6.7855975629579760e+01 5.1795595292899520e+01 3.2433599885088078e+01 0 -1 0
3225 162 1 0.0000000000000000e+00 6.3372992180271005e+01 3.6530999561364709e+01 4.6388865180556806e+01 0 -1 0
277 14 1 0.0000000000000000e+00 3.4797816292864326e+01 5.8998888991921604e+01 3.1314128681570370e+01 0 0 0
627 32 1 0.0000000000000000e+00 3.0170686346981785e+01 6.4062171711696834e+01 3.7646238803974441e+01 1 0 -1
752 38 1 0.0000000000000000e+00 4.5909208077778445e+01 6.3103089099448553e+01 4.7403987610252528e+01 1 -1 0
276 14 1 0.0000000000000000e+00 4.0388206097828558e+01 5.9661204717414691e+01 3.1880072216122919e+01 0 0 0
3608 181 1 0.0000000000000000e+00 4.7436816350013217e+01 6.2946369276001022e+01 3.1253276310758825e+01 0 0 0
207 11 1 0.0000000000000000e+00 4.3562483239935915e+01 5.7641298924621481e+01 3.6704978512362118e+01 0 0 0
1477 74 1 0.0000000000000000e+00 4.2726684118148569e+01 6.4318780445588544e+01 3.4615467884451540e+01 0 0 0
1478 74 1 0.0000000000000000e+00 3.7685233964602745e+01 6.4366082761966055e+01 3.5792234940070465e+01 0 0 0
3617 181 1 0.0000000000000000e+00 5.1366290469778448e+01 6.1579995517229413e+01 3.9067171760547495e+01 0 0 0
3613 181 1 0.0000000000000000e+00 5.5620435930284913e+01 6.4372624255636239e+01 3.5085649756376000e+01 0 0 0
3614 181 1 0.0000000000000000e+00 5.8098361938878867e+01 5.9941798776921274e+01 3.3629761772358066e+01 0 0 0
3612 181 1 0.0000000000000000e+00 5.4194503790770725e+01 6.1508259626520513e+01 3.0882103287252619e+01 0 0 0
3616 181 1 0.0000000000000000e+00 5.5331784353257788e+01 6.1368428885366647e+01 4.0268231089202892e+01 0 0 0
3810 191 1 0.0000000000000000e+00 6.1559483312734365e+01 5.9507965150423075e+01 3.8553299409269869e+01 0 -1 0
3895 195 1 0.0000000000000000e+00 6.1781572169764729e+01 6.4231089422293508e+01 3.3718198929118337e+01 0 0 0
3816 191 1 0.0000000000000000e+00 7.2450947005288839e+01 6.5473076400689422e+01 4.0704808023431866e+01 0 -1 0
3811 191 1 0.0000000000000000e+00 6.4967775801458885e+01 5.9220703323889055e+01 3.3890239778479184e+01 0 -1 0
3813 191 1 0.0000000000000000e+00 7.2565656874382711e+01 5.9360702290434205e+01 3.3986294642612606e+01 0 -1 0
3814 191 1 0.0000000000000000e+00 6.9292276765642413e+01 6.0183082510650863e+01 3.7912461365693432e+01 0 -1 0
3812 191 1 0.0000000000000000e+00 6.8098114522209698e+01 5.7607702797972870e+01 3.0815901339842330e+01 0 -1 0
3815 191 1 0.0000000000000000e+00 7.3456328258139052e+01 6.3005796308846335e+01 3.8477548224368881e+01 0 -1 0
449 23 1 0.0000000000000000e+00 7.1348904707354876e+01 5.1376442916725736e+01 4.6374130870556328e+01 -1 0 0
263 14 1 0.0000000000000000e+00 3.0373461726767257e+01 7.2652146932194114e+01 3.4506210477946503e+01 0 0 0
1480 74 1 0.0000000000000000e+00 3.7398084072505341e+01 6.8471878428726598e+01 3.6445207686727258e+01 0 0 0
1479 74 1 0.0000000000000000e+00 3.9619025944545960e+01 6.7833824986485027e+01 3.2917512907758400e+01 0 0 0
3195 160 1 0.0000000000000000e+00 4.5266094660088783e+01 7.0477284921275896e+01 3.2372311779257743e+01 0 0 1
3194 160 1 0.0000000000000000e+00 4.0302131344775987e+01 7.2293419785171523e+01 3.2100642400718975e+01 0 0 1
1476 74 1 0.0000000000000000e+00 4.2389473395451375e+01 6.8547505403115494e+01 3.7589505186240906e+01 0 0 0
1469 74 1 0.0000000000000000e+00 5.1801784353109625e+01 7.4469813857765445e+01 3.1717261490487264e+01 0 0 0
1473 74 1 0.0000000000000000e+00 4.8057250478926605e+01 7.1358243430913802e+01 3.6762142525670583e+01 0 0 0
1472 74 1 0.0000000000000000e+00 5.3663172082348993e+01 6.9752537343841510e+01 3.6967030610042713e+01 0 0 0
3611 181 1 0.0000000000000000e+00 5.7449576331269185e+01 6.4384212119501925e+01 2.9426124815129899e+01 0 0 0
1474 74 1 0.0000000000000000e+00 4.9620724613873378e+01 6.7181005580539690e+01 3.8973896161379059e+01 0 0 0
1475 74 1 0.0000000000000000e+00 4.6092875690725712e+01 6.5034458406619308e+01 3.8162046555948947e+01 0 0 0
1147 58 1 0.0000000000000000e+00 3.8325606461756401e+01 4.6031449463992914e+01 4.6758205357977054e+01 -1 0 0
3894 195 1 0.0000000000000000e+00 6.6723249039783354e+01 6.5350033110697780e+01 3.4576562995843233e+01 0 0 0
3896 195 1 0.0000000000000000e+00 6.2311222999481828e+01 6.5034217305066122e+01 3.7339975099136439e+01 0 0 0
3898 195 1 0.0000000000000000e+00 6.0013142952912958e+01 7.0673477953616270e+01 3.3758234515637582e+01 0 0 0
3516 176 1 0.0000000000000000e+00 7.2449275151727846e+01 6.8694409174800455e+01 3.3749328104305313e+01 0 -1 0
2253 113 1 0.0000000000000000e+00 5.5683002401738946e+01 3.1810701748422463e+01 4.7481194874301323e+01 0 -1 0
661 34 1 0.0000000000000000e+00 3.4331488898590166e+01 3.2044117203842731e+01 4.2493928538030083e+01 0 1 -1
1194 60 1 0.0000000000000000e+00 5.9887270957013058e+01 4.5181915881725004e+01 4.6716448571453824e+01 0 1 -1
3899 195 1 0.0000000000000000e+00 6.4509093392195382e+01 7.1540327225487971e+01 3.4805004320385152e+01 0 0 0
2187 110 1 0.0000000000000000e+00 6.4122142471193470e+01 6.5906673238741206e+01 4.6932007480213521e+01 0 0 0
663 34 1 0.0000000000000000e+00 3.8331771373813361e+01 3.0749181170819540e+01 4.1448500108111823e+01 0 1 -1
665 34 1 0.0000000000000000e+00 4.3839677790377138e+01 3.2758250077948659e+01 4.2644245402740701e+01 0 1 -1
664 34 1 0.0000000000000000e+00 3.9922069272169132e+01 3.4821663771315237e+01 4.3541162347868941e+01 0 1 -1
3221 162 1 0.0000000000000000e+00 5.7863121303232205e+01 3.0163069146417982e+01 4.1008829903349977e+01 0 -1 0
2251 113 1 0.0000000000000000e+00 5.2636360117063923e+01 3.1294001814263027e+01 4.4831220990857055e+01 0 -1 0
3222 162 1 0.0000000000000000e+00 5.5756636427466375e+01 3.4672065032069206e+01 4.1599233984363721e+01 0 -1 0
3238 162 1 0.0000000000000000e+00 5.0725071048690381e+01 2.9717701065160995e+01 3.9317814996802447e+01 0 -1 0
1613 81 1 0.0000000000000000e+00 3.0136687784414452e+01 3.7482948602721926e+01 4.0528667828190017e+01 0 0 1
3224 162 1 0.0000000000000000e+00 5.8399500351106958e+01 3.6104541040970844e+01 4.4243228304624047e+01 0 -1 0
3223 162 1 0.0000000000000000e+00 6.0465755692581354e+01 3.4829582992530518e+01 4.0449129040464840e+01 0 -1 0
875 44 1 0.0000000000000000e+00 5.6590202747067039e+01 5.1810646783936605e+01 4.7098340586347007e+01 -1 0 0
3270 164 1 0.0000000000000000e+00 6.8412811296221975e+01 3.3192531613397023e+01 4.1452173862130721e+01 0 0 0
3268 164 1 0.0000000000000000e+00 6.7196573605719948e+01 3.1786588439085769e+01 4.7149096418582324e+01 0 0 0
3269 164 1 0.0000000000000000e+00 6.7881957586357885e+01 3.4803346216832644e+01 4.4229554370703653e+01 0 0 0
1611 81 1 0.0000000000000000e+00 3.0983906485344246e+01 4.2026406171786597e+01 4.0580785022944212e+01 0 0 1
1609 81 1 0.0000000000000000e+00 3.6666999724940347e+01 4.0374342774338935e+01 3.7120764352156989e+01 0 0 1
821 42 1 0.0000000000000000e+00 4.5122145221772826e+01 3.8843882493092636e+01 3.8126148200970739e+01 1 0 0
1607 81 1 0.0000000000000000e+00 3.9903087118445768e+01 4.2300210864146351e+01 4.0255177887296377e+01 0 0 1
870 44 1 0.0000000000000000e+00 5.2146903918391956e+01 4.2872511258421824e+01 4.3280010844659046e+01 -1 0 0
456 23 1 0.0000000000000000e+00 7.3073729440868561e+01 4.2358978249910599e+01 3.1599354567477821e+01 -1 0 0
871 44 1 0.0000000000000000e+00 5.6796208557392589e+01 4.5173105227247675e+01 4.1356849298357531e+01 -1 0 0
872 44 1 0.0000000000000000e+00 5.3506919112939372e+01 4.7419503000210540e+01 4.3966694937363158e+01 -1 0 0
1196 60 1 0.0000000000000000e+00 5.8404145143082921e+01 4.2055038404132439e+01 4.6488130676399692e+01 0 1 -1
3231 162 1 0.0000000000000000e+00 5.8107390399963919e+01 4.1702982975845686e+01 3.6835618206245869e+01 0 -1 0
3227 162 1 0.0000000000000000e+00 6.6565312455867655e+01 3.8918089308924174e+01 4.0271664119482139e+01 0 -1 0
3228 162 1 0.0000000000000000e+00 6.2087499740966635e+01 4.0702431517058152e+01 4.1386820783186224e+01 0 -1 0
3226 162 1 0.0000000000000000e+00 6.5261874400452342e+01 4.0561651992661915e+01 4.4177650048951136e+01 0 -1 0
450 23 1 0.0000000000000000e+00 6.8997737419964182e+01 4.6637993551584287e+01 4.5178747530589163e+01 -1 0 0
1612 81 1 0.0000000000000000e+00 3.4327422265134445e+01 3.8394534785947734e+01 4.1814065521994010e+01 0 0 1
3271 164 1 0.0000000000000000e+00 7.1828895676465834e+01 3.6437655982268090e+01 4.1578411816758319e+01 0 0 0
452 23 1 0.0000000000000000e+00 7.0517120035656092e+01 4.1935726097628780e+01 3.9338508146134451e+01 -1 0 0
750 38 1 0.0000000000000000e+00 4.8356324573998236e+01 6.6518840163359414e+01 4.7347692658275463e+01 1 -1 0
1604 81 1 0.0000000000000000e+00 4.0053763851331055e+01 4.8693927503842453e+01 4.1980680839740721e+01 0 0 1
1603 81 1 0.0000000000000000e+00 3.6557230533999800e+01 5.2222826711062197e+01 4.2123389970446738e+01 0 0 1
1602 81 1 0.0000000000000000e+00 3.3607143804758422e+01 5.0881160992487423e+01 3.9127881093370405e+01 0 0 1
2192 110 1 0.0000000000000000e+00 7.1262028239859802e+01 6.9225662766721598e+01 4.7278505714369103e+01 0 0 0
3802 191 1 0.0000000000000000e+00 4.3930088730814184e+01 5.5911759335043328e+01 4.5442134222974929e+01 0 -1 0
3801 191 1 0.0000000000000000e+00 4.2605732068037597e+01 5.3872012190518873e+01 4.2063890213230863e+01 0 -1 0
2245 113 1 0.0000000000000000e+00 4.3236230805475259e+01 2.9444200933458980e+01 4.7480554569839356e+01 0 -1 0
3806 191 1 0.0000000000000000e+00 5.3874758690024677e+01 5.7098533010835162e+01 4.4274162290001534e+01 0 -1 0
873 44 1 0.0000000000000000e+00 5.7044685148419013e+01 4.9136525338842105e+01 4.3138718330519737e+01 -1 0 0
3804 191 1 0.0000000000000000e+00 4.8412334240976378e+01 5.3167637585363082e+01 4.3910290485368790e+01 0 -1 0
3807 191 1 0.0000000000000000e+00 5.7597246128439778e+01 6.0464889314828056e+01 4.6884677615640150e+01 0 -1 0
3808 191 1 0.0000000000000000e+00 6.0170733945020032e+01 5.6450897389153170e+01 4.5845824934850242e+01 0 -1 0
446 23 1 0.0000000000000000e+00 7.1788073569168589e+01 4.9949151125488292e+01 4.1278003226024950e+01 -1 0 0
2696 135 1 0.0000000000000000e+00 3.5374260793959294e+01 4.6015270566461339e+01 2.9678706668690790e+01 0 0 1
448 23 1 0.0000000000000000e+00 6.6218542948953981e+01 5.1065795860852390e+01 4.6134979467061086e+01 -1 0 0
444 23 1 0.0000000000000000e+00 7.3397275406412575e+01 4.8277641395604590e+01 3.7286882161580138e+01 -1 0 0
451 23 1 0.0000000000000000e+00 6.8248276065849581e+01 4.5992892816717202e+01 4.0694424914606245e+01 -1 0 0
447 23 1 0.0000000000000000e+00 6.9219392221820371e+01 5.3284597203306902e+01 4.2481459586931571e+01 -1 0 0
279 14 1 0.0000000000000000e+00 3.4799974578005241e+01 6.0014684078442656e+01 3.7877680747982005e+01 0 0 0
624 32 1 0.0000000000000000e+00 3.2906822396686877e+01 7.0420073983996929e+01 4.3888162208970456e+01 1 0 -1
212 11 1 0.0000000000000000e+00 3.4458856863272572e+01 6.1677068330772492e+01 4.6216883982796929e+01 0 0 0
1264 64 1 0.0000000000000000e+00 7.3541011959930955e+01 6.3984025540365081e+01 2.9672908304791292e+01 0 0 -1
210 11 1 0.0000000000000000e+00 4.0627451109789853e+01 5.9759971052504085e+01 4.2824875007396336e+01 0 0 0
280 14 1 0.0000000000000000e+00 3.8029343153783131e+01 5.9640058850078887e+01 3.7577143444785328e+01 0 0 0
211 11 1 0.0000000000000000e+00 3.8308058153328773e+01 6.2440161212188158e+01 4.3818599084572355e+01 0 0 0
209 11 1 0.0000000000000000e+00 4.1488256128050381e+01 6.3985707365513086e+01 4.2168793065873921e+01 0 0 0
208 11 1 0.0000000000000000e+00 4.5088173182449410e+01 6.0340562091336949e+01 4.0881958850720814e+01 0 0 0
3805 191 1 0.0000000000000000e+00 4.9513582255002902e+01 5.7379592565524050e+01 4.4836544553675175e+01 0 -1 0
3928 197 1 0.0000000000000000e+00 6.3825472422628607e+01 7.4537320012912957e+01 4.6611945414026906e+01 0 -1 0
3619 181 1 0.0000000000000000e+00 5.3713960767084714e+01 6.6145354697627596e+01 4.3772381963775629e+01 0 0 0
3809 191 1 0.0000000000000000e+00 6.4472340360618176e+01 5.7156341190648561e+01 4.3055448647397967e+01 0 -1 0
2188 110 1 0.0000000000000000e+00 6.1517055385621617e+01 6.4899405994211094e+01 4.3181704328037135e+01 0 0 0
2191 110 1 0.0000000000000000e+00 7.1849167465444339e+01 6.3836544924404606e+01 4.6360714740883473e+01 0 0 0
2190 110 1 0.0000000000000000e+00 6.8292405461424934e+01 6.2553055405497098e+01 4.3557072250135533e+01 0 0 0
3359 168 1 0.0000000000000000e+00 3.4458649151334072e+01 7.3874825149297379e+01 4.0087909785730687e+01 0 -1 0
261 14 1 0.0000000000000000e+00 3.4162061441545951e+01 7.1679493770670064e+01 3.5039739568761462e+01 0 0 0
674 34 1 0.0000000000000000e+00 4.0580079209100525e+01 3.0414194234870592e+01 3.3575779846743686e+01 0 1 -1
623 32 1 0.0000000000000000e+00 3.6518921904767396e+01 6.8492851786845222e+01 4.2472225654020910e+01 1 0 -1
622 32 1 0.0000000000000000e+00 3.7449442480191067e+01 7.1730269090330182e+01 4.6008599069065411e+01 1 0 -1
626 32 1 0.0000000000000000e+00 3.2380594270282572e+01 6.7075595784488513e+01 4.0034279530591235e+01 1 0 -1
827 42 1 0.0000000000000000e+00 5.6818412209814923e+01 4.4484271138872494e+01 3.0357214963077613e+01 1 0 0
1532 77 1 0.0000000000000000e+00 6.4306867982235559e+01 3.5644713572405472e+01 3.0815615698979343e+01 -1 0 0
3560 178 1 0.0000000000000000e+00 4.6659090749098070e+01 7.3696631311504731e+01 4.5177014232892972e+01 0 -2 -1
3618 181 1 0.0000000000000000e+00 5.1552031408629780e+01 6.2428396634168287e+01 4.3364813893919234e+01 0 0 0
3620 181 1 0.0000000000000000e+00 5.3931097761973092e+01 6.3109505869655109e+01 4.5670869937967893e+01 0 0 0
388 20 1 0.0000000000000000e+00 7.1262990878119496e+01 4.1833839007251441e+01 4.7540979264143395e+01 0 0 0
3930 197 1 0.0000000000000000e+00 5.9362524230615790e+01 7.0579017885747561e+01 4.3617131430073321e+01 0 -1 0
3897 195 1 0.0000000000000000e+00 5.9358962160016191e+01 6.8111281395187149e+01 3.8033647772348914e+01 0 0 0
2189 110 1 0.0000000000000000e+00 6.6142385902724641e+01 6.7410173840786214e+01 4.2079197047426852e+01 0 0 0
3517 176 1 0.0000000000000000e+00 7.0998485343662153e+01 7.1021523883199052e+01 3.7645332734232170e+01 0 -1 0
1529 77 1 0.0000000000000000e+00 6.8033249046234545e+01 3.0922097267775822e+01 3.2269613983034006e+01 -1 0 0
2193 110 1 0.0000000000000000e+00 7.1225513367036783e+01 7.2373559834087800e+01 4.2930894274392692e+01 0 0 0
3275 164 1 0.0000000000000000e+00 7.4452278689099245e+01 3.7289290747099557e+01 3.5591308365654349e+01 0 0 0
824 42 1 0.0000000000000000e+00 5.1194201883991461e+01 4.0369558628498496e+01 2.9763936087988284e+01 1 0 0
3893 195 1 0.0000000000000000e+00 6.4505946771245732e+01 6.6331233949444538e+01 2.9770261326442384e+01 0 0 0
445 23 1 0.0000000000000000e+00 7.4586266092085054e+01 5.2641203287381344e+01 3.8758673329512675e+01 -1 0 0
2254 113 1 0.0000000000000000e+00 5.8574254931712062e+01 2.9914220627541830e+01 4.6689684652441827e+01 0 -1 0
1601 81 1 0.0000000000000000e+00 2.9482357160667107e+01 5.0976182665999687e+01 4.1004070015380570e+01 0 0 1
3192 160 1 0.0000000000000000e+00 4.3418773844408939e+01 7.4869655874921065e+01 3.5776962686871535e+01 0 0 1
3607 181 1 0.0000000000000000e+00 4.5470457357662248e+01 5.8566957756316299e+01 2.9318744790133437e+01 0 0 0
2243 113 1 0.0000000000000000e+00 3.8592561972315565e+01 2.9765861733771565e+01 5.4335314001140901e+01 0 -1 0
1143 58 1 0.0000000000000000e+00 3.5857055802505855e+01 3.6183971510537873e+01 5.1324439026755826e+01 -1 0 0
1544 78 1 0.0000000000000000e+00 3.0224596789526185e+01 3.3536637042022129e+01 5.3512874297753896e+01 -1 0 0
2107 106 1 0.0000000000000000e+00 3.0481865694174942e+01 3.8137154182970463e+01 5.7884366800176366e+01 0 0 -1
3692 185 1 0.0000000000000000e+00 3.0047868824488738e+01 3.9443323341711718e+01 6.3733786935655310e+01 0 0 0
2247 113 1 0.0000000000000000e+00 4.3558582870977261e+01 3.7220569915508634e+01 4.9290593179002443e+01 0 -1 0
2246 113 1 0.0000000000000000e+00 4.3873339193830418e+01 3.2336267853476933e+01 5.1789276638714099e+01 0 -1 0
1144 58 1 0.0000000000000000e+00 3.8481860617142914e+01 3.4336189164375057e+01 5.1788534445929209e+01 -1 0 0
105 6 1 0.0000000000000000e+00 2.9413266251674315e+01 7.3311536269197575e+01 4.8084392037955098e+01 0 -1 -1
1012 51 1 0.0000000000000000e+00 4.4670061619865457e+01 3.3794249027526874e+01 6.5426778541142795e+01 0 0 -1
400 20 1 0.0000000000000000e+00 5.5467585685917058e+01 3.0262245648729014e+01 5.3176761113059456e+01 0 0 0
743 38 1 0.0000000000000000e+00 4.7482929928172609e+01 6.8967771002594205e+01 6.5280885207620457e+01 1 -1 0
2249 113 1 0.0000000000000000e+00 4.9574280142630982e+01 3.1656054326294452e+01 5.0666814165290774e+01 0 -1 0
1200 60 1 0.0000000000000000e+00 6.2162090042440248e+01 3.7706345400965148e+01 5.4568558816728185e+01 0 1 -1
1197 60 1 0.0000000000000000e+00 5.4393970052235645e+01 3.8586714425928847e+01 4.7982117885666270e+01 0 1 -1
398 20 1 0.0000000000000000e+00 6.0012507076241704e+01 3.2316792678531264e+01 5.3824677983663094e+01 0 0 0
3281 165 1 0.0000000000000000e+00 7.4380007799184781e+01 3.7620732081868930e+01 5.2633246772648562e+01 -1 -1 -1
3265 164 1 0.0000000000000000e+00 7.0511857689272802e+01 3.2021865560166987e+01 5.1889127953221120e+01 0 0 0
3267 164 1 0.0000000000000000e+00 6.7859071469038156e+01 3.5431318658871319e+01 4.9609480428739232e+01 0 0 0
3282 165 1 0.0000000000000000e+00 7.0905560126023786e+01 3.6818010192080671e+01 5.5475437913157194e+01 -1 -1 -1
2105 106 1 0.0000000000000000e+00 3.0684431084500321e+01 4.0492111079633737e+01 5.3890044261453696e+01 0 0 -1
3042 153 1 0.0000000000000000e+00 7.3132523252045047e+01 6.0953741793689268e+01 6.5556881263216624e+01 0 -1 -1
805 41 1 0.0000000000000000e+00 2.9412274920654877e+01 5.5044363577605566e+01 5.1787825221724063e+01 1 0 0
1145 58 1 0.0000000000000000e+00 3.9861144964825726e+01 3.8638307607188437e+01 5.3794153539147217e+01 -1 0 0
2938 147 1 0.0000000000000000e+00 6.2563624086917912e+01 7.0331121728837246e+01 5.6945094299742543e+01 -1 0 0
2102 106 1 0.0000000000000000e+00 4.2458920799397710e+01 4.5089404813545130e+01 5.5039360164577829e+01 0 0 -1
1019 51 1 0.0000000000000000e+00 4.9106249494134147e+01 4.1435765065804304e+01 5.2268396807055360e+01 0 0 -1
1146 58 1 0.0000000000000000e+00 4.1047881361746789e+01 4.3454737419866071e+01 4.9953682446116488e+01 -1 0 0
1020 51 1 0.0000000000000000e+00 5.2988238663284818e+01 3.9989108700607318e+01 5.4202089997927715e+01 0 0 -1
1198 60 1 0.0000000000000000e+00 5.7918870356304566e+01 3.5858851436647825e+01 5.0995447853939943e+01 0 1 -1
1199 60 1 0.0000000000000000e+00 6.0674853989126483e+01 4.0111293825685394e+01 5.0584883014586651e+01 0 1 -1
3346 168 1 0.0000000000000000e+00 3.0850130540158382e+01 7.3808793667045634e+01 5.7129996586372613e+01 0 -1 0
1195 60 1 0.0000000000000000e+00 5.7568455182806638e+01 4.3712430534788552e+01 4.9573767871189446e+01 0 1 -1
1193 60 1 0.0000000000000000e+00 6.1478765707463623e+01 4.9599581345910522e+01 4.9595904936636785e+01 0 1 -1
389 20 1 0.0000000000000000e+00 6.8106013548878252e+01 4.2773384465007240e+01 5.0816544920518346e+01 0 0 0
390 20 1 0.0000000000000000e+00 7.0713351196772550e+01 4.4839442621742819e+01 5.3311999262414943e+01 0 0 0
1141 58 1 0.0000000000000000e+00 3.4537633614828223e+01 3.0770686383634864e+01 4.9324774825708786e+01 -1 0 0
2104 106 1 0.0000000000000000e+00 3.4656992914898623e+01 4.2503104167522558e+01 5.3372643080777451e+01 0 0 -1
1149 58 1 0.0000000000000000e+00 3.7217350955399922e+01 4.9370320988304265e+01 5.1452229210208870e+01 -1 0 0
1151 58 1 0.0000000000000000e+00 3.8399948842878189e+01 5.6376795035081685e+01 5.4181711738797084e+01 -1 0 0
1150 58 1 0.0000000000000000e+00 3.8224043949202908e+01 5.3637321834148445e+01 4.9409738312589610e+01 -1 0 0
2101 106 1 0.0000000000000000e+00 4.4169451023473556e+01 4.8926391954866730e+01 5.7864776217653613e+01 0 0 -1
877 44 1 0.0000000000000000e+00 5.1825511715216926e+01 5.1448377253370744e+01 5.2881708803192524e+01 -1 0 0
486 25 1 0.0000000000000000e+00 5.6155520756395475e+01 6.9636004891042532e+01 6.2381786819504072e+01 0 -1 0
876 44 1 0.0000000000000000e+00 5.6512832230126676e+01 5.2013505260692540e+01 5.2531068961460960e+01 -1 0 0
878 44 1 0.0000000000000000e+00 5.2652093657392697e+01 5.3345573098503102e+01 5.5530710671231887e+01 -1 0 0
387 20 1 0.0000000000000000e+00 7.4063848824862049e+01 4.4991836641260257e+01 4.8109974085177640e+01 0 0 0
2183 110 1 0.0000000000000000e+00 6.2901863011610871e+01 5.5246573859320030e+01 5.0458571623356995e+01 0 0 0
1191 60 1 0.0000000000000000e+00 6.1561003376851737e+01 5.0106038939750498e+01 5.4649841867462996e+01 0 1 -1
1192 60 1 0.0000000000000000e+00 5.9789105560559825e+01 4.6314627371667243e+01 5.3307799885386927e+01 0 1 -1
874 44 1 0.0000000000000000e+00 5.5269816457420958e+01 4.8709190493310061e+01 4.8660313627676530e+01 -1 0 0
2181 110 1 0.0000000000000000e+00 6.6342978254957799e+01 5.0695407058512835e+01 5.2063105668626875e+01 0 0 0
1161 59 1 0.0000000000000000e+00 7.1375594340308481e+01 5.4534733331871259e+01 5.7229475072797911e+01 1 0 -1
220 11 1 0.0000000000000000e+00 3.9342014672372393e+01 6.0854531479357945e+01 4.9235771498785439e+01 0 0 0
219 11 1 0.0000000000000000e+00 3.5209207548098149e+01 6.2543180417159483e+01 5.2037539021263093e+01 0 0 0
214 11 1 0.0000000000000000e+00 4.0837938024888707e+01 6.6637612754746542e+01 4.9949000832217884e+01 0 0 0
216 11 1 0.0000000000000000e+00 4.0744417503811526e+01 6.1437225925628262e+01 5.5395070797738072e+01 0 0 0
753 38 1 0.0000000000000000e+00 4.6339140190836630e+01 5.8863136849674284e+01 5.0202332453110529e+01 1 -1 0
487 25 1 0.0000000000000000e+00 6.0025724515359641e+01 7.1655121703572476e+01 6.3773003355902183e+01 0 -1 0
215 11 1 0.0000000000000000e+00 4.3139976008332582e+01 6.3605461183297258e+01 5.3755910176452446e+01 0 0 0
758 38 1 0.0000000000000000e+00 5.4386134704337493e+01 6.2122292682237052e+01 5.1870629187767236e+01 1 -1 0
759 38 1 0.0000000000000000e+00 5.8347196755146150e+01 5.9159517667650562e+01 5.2885810080912783e+01 1 -1 0
754 38 1 0.0000000000000000e+00 4.9817236067770523e+01 5.8994159826334062e+01 5.4586264122572317e+01 1 -1 0
756 38 1 0.0000000000000000e+00 5.4299989625004073e+01 6.4201236459722281e+01 5.8015635628941453e+01 1 -1 0
751 38 1 0.0000000000000000e+00 4.9729172745512031e+01 6.3693357081134593e+01 5.0082182442198516e+01 1 -1 0
755 38 1 0.0000000000000000e+00 4.9238291784348363e+01 6.2509559604265242e+01 5.6671766659034581e+01 1 -1 0
611 31 1 0.0000000000000000e+00 7.1503130883193137e+01 7.0575928157985146e+01 6.1902270381409224e+01 -1 0 0
757 38 1 0.0000000000000000e+00 5.5405112695185025e+01 6.0791492436201125e+01 5.5646122482221969e+01 1 -1 0
2940 147 1 0.0000000000000000e+00 5.8531182829141983e+01 6.5289955486445393e+01 5.1333840904816185e+01 -1 0 0
2185 110 1 0.0000000000000000e+00 6.6444823053843422e+01 6.2383070123910102e+01 4.9460628301641222e+01 0 0 0
2186 110 1 0.0000000000000000e+00 6.3206872397843043e+01 6.2068940798753886e+01 5.0273051869670439e+01 0 0 0
2182 110 1 0.0000000000000000e+00 6.6066311631870036e+01 5.5712772022395740e+01 5.1814619566864614e+01 0 0 0