ITEM: TIMESTEP
1
ITEM: NUMBER OF ATOMS
5000
ITEM: BOX BOUNDS pp pp pp
0 18.051655059781123
0 18.051655059781123
0 18.051655059781123
ITEM: ATOMS id type x y z
1 1 8.02986678916604 8.064707819388525 -0.07865185181852374 
2 1 7.819808445399643 8.982449620311872 0.2584319345789999 
3 1 7.465665580269805 9.83906660914465 -0.11678822149033158 
4 1 7.181214036500377 9.22447198543553 0.6189840039674077 
5 1 6.646892659476599 8.39385145721531 0.7757328609156388 
6 1 6.407431503602207 7.781127540886093 1.5288781040032426 
7 1 6.754512395337411 6.8765225025476315 1.7763141143270564 
8 1 6.730601035200048 7.250033074206058 2.7036318051513915 
9 1 6.983071065236377 6.284180300836498 2.7618323559029405 
10 1 6.587511573925422 7.027510953087364 2.222395399198896 
11 1 3.4407848815494164 11.869132398051182 14.911062964113611 
12 1 2.474033883343863 11.875354201298906 14.65541907775426 
13 1 2.482175341705905 12.61064568534443 15.333121187936802 
14 1 3.4274314222818285 12.514542450483663 15.644978704093685 
15 1 4.061912483525157 13.276522659838825 15.774670428866717 
16 1 3.349182418997467 13.098801742458527 15.09611967126353 
17 1 2.9902251865530283 12.19858774041021 15.342624145446013 
18 1 3.1729131042085936 11.487579952732748 16.021662473233683 
19 1 2.8985245217802715 11.494538828543602 16.98325619195299 
20 1 3.439512622497792 12.197785818585473 17.444532189463263 
21 1 5.082227891297505 13.855517488628905 4.450533836968557 
22 1 4.648022291264311 14.247260777190188 3.6393601855430395 
23 1 5.059933670799542 14.8515938894552 4.321350291651235 
24 1 5.927898101527833 15.256352984941584 4.03358680958383 
25 1 6.66030494419047 14.57555825102654 4.023649652319738 
26 1 6.909257967204225 13.987969078259473 3.253739685908582 
27 1 6.087317501983151 13.969567948555401 2.684463592911716 
28 1 6.249225564747864 12.987317631039 2.5897530182608115 
29 1 5.748232143928162 12.465374741355905 1.8994044018323917 
30 1 6.507705248193406 11.832306882351016 1.7496523073806596 
31 1 8.563598048247059 1.991970582507506 4.992875738452066 
32 1 9.143710204233747 1.264895880361634 5.360070869106012 
33 1 9.36555168691213 1.7624739850622841 4.521499234547839 
34 1 10.276612842105152 1.5944587397315442 4.145017563234601 
35 1 9.37103599049506 1.271202246558437 3.8703617687401546 
36 1 9.886777328227561 1.5237257129933386 3.0516782087161425 
37 1 9.410575387470503 1.3020508788788727 2.200742265451589 
38 1 10.224191857127197 1.881164510464118 2.1492093437846878 
39 1 9.915234434219778 2.1612903265596723 1.2403227513061732 
40 1 9.758182387925977 1.1896482869548348 1.4170892685753698 
41 1 4.357636576988902 7.098228200648683 16.06887395833281 
42 1 5.0242142814186534 7.584444506050859 15.50383602304154 
43 1 4.249562702839247 7.956929968512598 16.014883488605257 
44 1 4.2935864110078406 6.985751921428809 15.780629109816717 
45 1 3.4765911874140256 7.237745408756532 15.261959574400084 
46 1 3.939399978076156 7.996701366072312 15.719992191296244 
47 1 4.336854621971926 7.227771483615964 16.220768230970023 
48 1 4.809133706789293 7.942179380519495 15.704460354905805 
49 1 5.037638425846968 8.468215339590635 16.52365005401858 
50 1 4.485907626161761 8.722951888366252 17.317817804180102 
51 1 1.1310377601653876 9.073922373224047 17.17098812897805 
52 1 1.403044317520714 10.035171178177329 17.21585646671848 
53 1 0.5564806791824355 10.162596497866456 16.699046255765197 
54 1 0.30405867244352874 10.728797990871097 15.914381359243619 
55 1 1.1445274474630112 11.267900685993537 15.968975519453052 
56 1 1.2124637128285585 10.768456523456896 15.105297227288512 
57 1 1.6988456725756078 11.530423025342198 15.532894747437187 
58 1 1.9755537640087142 11.397598956966823 14.581164534091167 
59 1 2.8588888179740866 11.557976207960909 15.021616937648659 
60 1 3.0707145332294288 10.989516339196996 15.816590675555439 
61 1 16.850600017776458 7.0401489430892275 8.319137679662507 
62 1 17.198427464590257 7.958979076408523 8.505597469824993 
63 1 16.472510942100158 8.098777815327336 9.179022680945419 
64 1 15.483988574963957 7.949546195404813 9.155497093030508 
65 1 14.768927871930144 7.548457432695541 9.72804927004596 
66 1 15.176648346898716 7.726870206538302 8.832542208978804 
67 1 15.074052963043853 8.638118735347014 9.231416006006926 
68 1 14.642070382801109 8.096555046480647 8.510236540639065 
69 1 15.26103668051665 7.616190959829655 7.888842087374253 
70 1 14.841651583675352 8.342696815736256 7.344502687844113 
71 1 10.486012640949689 0.8378915950225194 0.5402560270994629 
72 1 10.343291823362653 1.1850647666733862 1.467133342127275 
73 1 11.312788312720448 1.3093592198458592 1.2558812509341548 
74 1 11.857319921471799 2.064119671778651 0.8900643742473716 
75 1 11.76356944806444 1.0731385463652618 0.7943185763745269 
76 1 11.76386716410893 1.5702323796594235 -0.07337816342923253 
77 1 11.728792672978 1.5250382223451846 0.924984129637048 
78 1 11.797246179650283 2.352134300498215 1.4828606347240993 
79 1 11.796303141365314 3.066179644515695 2.182959454438682 
80 1 12.429679218896371 2.295071132561441 2.247970278176486 
81 1 10.773811305640493 6.617780437090574 14.032986964939655 
82 1 10.498011068250914 7.463903684722302 14.489067746022336 
83 1 10.276901241950611 8.193783844845 15.135894922764866 
84 1 9.618193311877292 7.441501981745639 15.149156193830516 
85 1 10.540346053778944 7.311363561151818 14.784878398612893 
86 1 9.62556288386479 7.715233042989885 14.792701037660114 
87 1 9.753411203915544 8.55627690493764 14.267058545713159 
88 1 9.137900930318311 8.659589563520473 15.048386644320145 
89 1 8.210350266865488 8.515745384147692 14.703482862391333 
90 1 7.651564181359792 8.16953046813186 15.457069846470391 
91 1 3.0970338051988384 5.34941153019091 11.265668960369277 
92 1 2.4078045485276363 4.625169345893411 11.286556522037676 
93 1 2.161850901033991 5.455868293758871 10.787110767926391 
94 1 2.8477628875978636 5.766566703345242 10.129090065388468 
95 1 2.9459180690405176 6.082382143171845 11.072819988789803 
96 1 3.4727872298130196 5.949513326131338 11.912316721889542 
97 1 3.020652988120133 6.759752603158715 12.285260338876014 
98 1 2.707178460057911 5.873532175673013 11.944163469697731 
99 1 2.1694267515282526 5.8930730264606535 12.78704024308986 
100 1 1.4581178891126052 5.41082916002416 12.275688548525993 
101 1 10.519423801222706 10.747852941868247 10.323157657086357 
102 1 9.71900649684721 10.998222498829051 9.778504351025045 
103 1 8.833753329890255 11.052574549249485 9.316581538200461 
104 1 9.07447058390882 10.679166500740783 10.212473067866126 
105 1 8.870881860270122 9.771228204928837 10.578805816341152 
106 1 9.178963978401077 10.720918631389043 10.522471968808995 
107 1 8.835928231406639 11.567286376390157 10.929888360852436 
108 1 8.349180461022476 10.696214083343904 10.995536424899948 
109 1 8.600271465312224 10.687393711370644 11.96345972175927 
110 1 8.545104849681389 11.273814051127648 11.15533359940019 
111 1 14.158388002457157 13.656823688358404 2.0009444205421327 
112 1 14.542168010501184 12.801155390810765 1.653748985667695 
113 1 14.873579401871448 12.720401764289731 2.593773103163479 
114 1 15.039471556029326 11.86336285243703 2.1059574650795847 
115 1 15.925337069326144 12.250467614481902 2.3616764427749213 
116 1 15.161393673778518 11.776466389010421 1.9238256386752863 
117 1 16.074168662427105 11.582743154291311 1.5642242921434135 
118 1 16.315868663302894 11.533375822594156 0.5951298818108869 
119 1 16.55813247885913 12.253689912241482 1.2450959239451498 
120 1 17.232658339179896 11.832543082413766 1.851437586281323 
121 1 12.245920102064732 13.55366956174174 0.5305072899785022 
122 1 11.30349067216412 13.844394393686164 0.36526249657158216 
123 1 10.606014371300857 14.51180034087582 0.10431018025693822 
124 1 9.916298004316777 13.845620433545756 0.3880277584645487 
125 1 10.79704600297757 13.413630160847347 0.1939469321344776 
126 1 9.857281335715845 13.089265385698242 0.30178877377736796 
127 1 10.12452132908091 12.650115877635 -0.555958564029083 
128 1 9.235279743166695 12.678008288978042 -0.09937186331360687 
129 1 8.706342703984625 13.204721668074944 -0.7648030204302754 
130 1 8.69391896234312 13.445508843641905 0.2056954013747836 
131 1 5.519999263247205 11.753364989659017 7.088104056132592 
132 1 5.6517564040852415 11.813789732430086 8.077542738567859 
133 1 6.21155085744336 11.3429008327209 7.395711517428669 
134 1 6.716531820578742 11.123175109723196 8.230405972618112 
135 1 6.2054109347422655 10.982046177301596 7.382562788712458 
136 1 5.364413790923553 11.521467242489857 7.34074510680718 
137 1 5.013406903255814 10.654621552404388 6.986665010797741 
138 1 5.7926441747110715 10.104528956636415 6.686352821807321 
139 1 5.486399501101376 10.63769668502675 5.897717054618956 
140 1 5.812986273748647 11.326629250482071 5.2506366885229125 
141 1 8.781775114101633 12.626084862217443 14.51172220471265 
142 1 8.075104382033267 12.334981186368543 15.156606013119418 
143 1 7.58769525392613 11.564817434117169 14.745169339309312 
144 1 8.119207694103835 11.594343002396622 13.898633594786897 
145 1 8.083679526817678 10.788484641721777 13.307592097208481 
146 1 7.833064091361962 11.736912596048464 13.501695984245904 
147 1 8.824389890456644 11.631136870506358 13.579700188846246 
148 1 8.628579493732724 11.953066481001285 12.653406707048276 
149 1 8.409534265375019 11.084296960163392 13.097544869782375 
150 1 8.313079211604478 10.58402311444376 13.958022935680054 
151 1 15.232202400018384 15.81322465957138 16.404727318943877 
152 1 16.147077765288937 16.150917271313876 16.626011674458688 
153 1 16.605789758034057 16.9785962766577 16.949323863874522 
154 1 16.898374535104544 17.865415247106167 17.307019631083662 
155 1 16.77143038990741 18.507435252650456 16.55091415135145 
156 1 17.00906822826498 17.828250020584846 15.856482240848536 
157 1 16.403472561572475 17.032477801712563 15.857163529586824 
158 1 17.194989472655934 17.5586358050659 15.546263650242803 
159 1 17.128174168907602 17.725839722015717 16.52991936508497 
160 1 17.712829313022795 17.532919544935496 17.317929623733285 
161 1 11.341887803069017 7.358278354405449 9.39500779258368 
162 1 11.265610636134593 6.675087199060852 10.121252681765954 
163 1 12.197507144903303 6.924627208905882 10.384499107062158 
164 1 11.547583461331666 7.023216444729346 9.63092139500293 
165 1 11.59275913137499 6.525798674806093 8.764587324911771 
166 1 10.865686024170383 6.169919252099154 9.351711275431262 
167 1 9.987327927322564 5.7176448916327285 9.19700201078766 
168 1 10.838158933009122 6.013761618293368 9.631054408493497 
169 1 11.758965989995998 5.934718400440128 9.24912963381323 
170 1 10.86859795162473 6.18715642470975 8.870289561817472 
171 1 0.9640639009729101 15.283255520546415 14.531440659892173 
172 1 1.22432938200491 14.605607106960841 13.843651079462129 
173 1 0.8552522339776378 15.274559549861365 13.198449802385372 
174 1 1.6136278166037328 15.50470864397924 13.808284099677065 
175 1 1.0084778560147925 15.521086521648664 14.604227119196835 
176 1 1.3344068438281882 15.323696932305777 13.679669038316039 
177 1 1.5546629384226156 16.18590224598747 13.22350103214609 
178 1 2.2525905074352472 16.761504471844017 13.6496221252653 
179 1 3.020055032528635 16.47470733077328 14.22298553759367 
180 1 3.950854194601852 16.402788331791005 14.5813716108013 
181 1 2.5145271918662933 3.57669569284778 5.543243022182937 
182 1 1.8443532704300574 2.852176279879969 5.382188574061946 
183 1 1.720386256994275 3.1352734419857313 6.3332344070203135 
184 1 0.9747054647678924 3.556290156109264 6.849669381178007 
185 1 1.229595885963205 3.897150570940423 7.754569956260157 
186 1 1.3860091050338732 4.857875042801782 7.525346497454857 
187 1 1.9314551449174744 4.7495159449005815 6.694234637668622 
188 1 1.7814373231720895 4.077507843126582 7.41942410553814 
189 1 1.7898956662530272 4.930698114782286 7.940955328749552 
190 1 1.0811270766638703 4.46615219101932 8.47184530899688 
191 1 10.278949071261081 7.741578906314435 7.398096888347728 
192 1 11.15282242481146 8.177524378123485 7.1829297264391325 
193 1 11.915378772730396 7.98622741857418 7.800921060938028 
194 1 11.80022736705721 8.893888424896094 8.204519439743223 
195 1 12.715380518806688 8.806625526190198 8.598067270829159 
196 1 12.602453719436099 8.154626430390856 7.848304163534091 
197 1 12.780250797988849 7.172279304968721 7.906461914805755 
198 1 13.08387013441094 7.37007414389026 6.974425166470899 
199 1 13.736441252068579 7.65305347649187 7.6773288822950585 
200 1 14.016699197159628 8.196180017865556 8.468826857193795 
201 1 13.409020694625964 11.20002980411105 15.745981292604759 
202 1 12.431752600847627 11.178037056258542 15.535117848820036 
203 1 11.912848701795822 10.348766677503965 15.327634397747246 
204 1 11.90371368491149 10.702397400747405 14.392293891276557 
205 1 11.873647826058626 10.977832141316114 13.431444398473815 
206 1 12.581675176548874 11.279858952547961 14.06978370969856 
207 1 12.338281821200276 11.50774297905878 13.127006670821729 
208 1 11.44374359060302 11.385607533491035 12.697024942214687 
209 1 10.88339924966262 11.461055491124652 11.872208704944237 
210 1 10.139705839575594 12.127881402001066 11.824634380177931 
211 1 6.030856065669482 5.105065014696058 4.332854319981502 
212 1 5.271740072067544 4.4657078797682495 4.210521322492492 
213 1 5.157395705661105 5.263036306977372 3.6179061480028945 
214 1 5.1994484021928065 5.327990767577634 4.614907897631521 
215 1 4.9911443460267995 4.349960874646157 4.62309011721007 
216 1 5.218334816722316 4.745867345702162 3.73334714522258 
217 1 4.369486806878806 4.294952973204064 4.009269751870456 
218 1 5.145775708870932 3.7929423319517332 4.390531940807784 
219 1 5.241533991764306 4.764204519832925 4.172632620823635 
220 1 5.658815608703015 3.8645553744135044 4.044151231855727 
221 1 7.51084550806087 11.11166505316025 13.342382656644645 
222 1 6.979708719571928 11.917742682507575 13.603404815434757 
223 1 6.385460024586434 11.147015545466468 13.833292111161292 
224 1 6.477672006692739 11.639659082694738 12.967960212070981 
225 1 5.585623320437929 11.799285303261518 13.390770584529644 
226 1 6.164424961970075 12.408730622187964 12.848954136829562 
227 1 5.8791605603655555 13.226651159415159 12.34932405771183 
228 1 6.30699619949465 12.812477631864738 13.15270252080842 
229 1 5.614696757925193 13.104371674140841 13.812641420469847 
230 1 5.18751688184784 13.927825410892897 13.439223026568833 
231 1 5.431381498601266 3.341717868197875 1.9188272429678737 
232 1 5.406705891410442 3.9024884076573114 1.091223765157312 
233 1 5.17162602643644 3.763884622138938 2.053266616450217 
234 1 5.356107935649819 4.225254020523189 1.1854505625496559 
235 1 6.076899620609346 4.089903927998537 0.50564198703242 
236 1 5.3802351610784935 3.375310881738098 0.5690092424788301 
237 1 6.377089996146494 3.296094415721633 0.5712872489343009 
238 1 7.169475685921864 3.903990858403484 0.5204263247000434 
239 1 6.547330441099538 4.4478950203881125 -0.042693162550013986 
240 1 7.35211781884199 4.880924704483461 -0.44865198967255837 
241 1 16.999020515836257 14.609298662355206 11.051131760000889 
242 1 17.6709933281852 14.48686132263644 11.781516341783968 
243 1 17.851071396810415 13.586477771285903 12.177598845383418 
244 1 18.123902628927418 13.397407928107034 13.120899281714197 
245 1 17.16039675365969 13.373614470387798 12.85427163930941 
246 1 17.334893018319793 13.261045368352674 13.832473689443571 
247 1 16.535855839331262 13.382958900275774 13.243681130618238 
248 1 17.020138921592697 12.60645361520342 12.840556536367195 
249 1 17.641413308038963 12.534212747878852 13.620812516052075 
250 1 16.814638548042005 13.032879282272676 13.360475842285915 
251 1 7.097771075393406 2.62616709423755 7.0883273373813465 
252 1 6.85414145925838 2.3741425995351326 6.151776076524851 
253 1 7.000717517730667 3.3462485643739877 5.96867650741709 
254 1 6.903695619001079 2.7263861698953544 5.189986990935636 
255 1 6.283785365302168 1.9421797953284339 5.16293815644026 
256 1 5.498524926754828 1.6861820568230994 5.726703357151153 
257 1 5.720572757620362 1.4662841914336764 6.676618979511942 
258 1 5.664531432377259 1.5656896424689246 5.683151352374814 
259 1 5.171903637334469 1.782942219966221 6.525837042962984 
260 1 4.358340305982492 1.8160379908550577 5.945303343830242 
261 1 14.89627640037645 4.915434604501619 3.7739109724594813 
262 1 14.48402455099887 4.800798413051496 2.870081919875656 
263 1 14.908965309180653 4.71145058114069 3.7708828506970717 
264 1 14.575869927578099 5.630201751311976 3.5588834307357344 
265 1 14.219115117029189 6.454953322577127 3.997644015617598 
266 1 13.444038060233837 5.911465828693605 3.6753446206109297 
267 1 14.00069649530126 5.460999904671262 4.373350235175014 
268 1 13.081237261974914 5.5626239781881734 4.753175544933011 
269 1 13.314297836064311 6.534983549660396 4.767304684024837 
270 1 13.622966906502704 7.449641926069909 4.506299972537455 
271 1 16.830326833157468 18.638448698178607 12.963997025042751 
272 1 16.230938822717178 19.37033157055499 12.639834297292433 
273 1 16.429558664108978 20.08496003858016 13.310547582753136 
274 1 16.60929295722897 19.49950931464537 14.10108096833586 
275 1 16.456864732716788 20.46980700126451 14.288932068182547 
276 1 15.930484192679641 21.277226482157875 14.022478866017348 
277 1 15.733324921498061 20.77431580632338 14.864030453217348 
278 1 16.241589372864016 19.93032774583996 14.692707946700835 
279 1 16.263148784152953 19.843434647470247 13.696723618892117 
280 1 15.945332521299092 19.939048611405095 12.753404588570842 
281 1 11.465318175772062 3.1800451930305162 4.598229569338618 
282 1 11.715436770652174 2.212262609555954 4.569288947049158 
283 1 12.022639394803106 1.2729864436844756 4.416361408847054 
284 1 11.660656084643012 1.8327684567224989 5.161755385911961 
285 1 11.865682535711422 2.6533861932086467 4.628322461425064 
286 1 11.231231914366555 1.9518295744392224 4.952807776556466 
287 1 11.097763889337928 2.8566048967245203 4.548372488187001 
288 1 10.525632289061479 3.146780110313181 5.315486415438934 
289 1 10.006470406196168 2.4916649651165677 5.864389946046788 
290 1 9.795861216726243 2.51099080380056 4.887010653617292 
291 1 6.820998265790276 7.56180597450284 10.215849126299025 
292 1 7.318415434611364 8.291928936117204 9.747344461343078 
293 1 7.175174439985972 8.038346296429436 10.703993750428536 
294 1 8.015796822305074 8.573978577592825 10.623668973928003 
295 1 8.167143342683637 7.821189621515965 11.264296024853902 
296 1 8.05392810298694 8.811674063532013 11.342544856312124 
297 1 8.754483659717833 9.476077444880634 11.602910097436954 
298 1 8.66901815723497 10.417863440809636 11.277741240137598 
299 1 8.641295951470122 10.590716680798712 12.262298621265183 
300 1 8.661655214114921 11.590334503897203 12.280999107044815 
301 1 11.496391230883361 11.808830084526708 16.59054026491028 
302 1 11.881694721589664 11.090551085537523 16.011216089978287 
303 1 11.496064327748368 11.108600730326069 16.933692869994356 
304 1 11.548777784675964 12.061382919187203 17.232737000596728 
305 1 11.09974770314211 11.174191612996767 17.126607023220828 
306 1 10.54948324245917 10.39265463557611 16.83265298560016 
307 1 11.328546835537505 10.810277735707785 17.300254166283317 
308 1 10.482606259131895 11.243980005437589 17.610555443144627 
309 1 10.283089701898508 11.531404472944764 16.673762873325696 
310 1 9.463609213383933 11.184210606130335 17.129732332599403 
311 1 11.92785467769698 12.307599877455502 5.444936363612077 
312 1 10.957095946804083 12.547654365382568 5.443783445017261 
313 1 11.227231444804321 12.747607883076775 6.385614323403543 
314 1 11.458935780817782 11.925048065863233 6.9049489436419655 
315 1 11.869989437801598 12.818190265393708 6.722378676352636 
316 1 12.092492964963622 13.78222545698348 6.86773454921964 
317 1 12.703138746164203 13.860756313338962 6.079734146616947 
318 1 13.025935665301963 14.350118940762808 6.889873867823112 
319 1 13.388515581909246 14.254566184252683 5.962832620199052 
320 1 13.91316841601592 14.94764627502602 5.468485180196114 
321 1 7.247259686754557 7.04546907143774 14.834451774557733 
322 1 7.730412510454109 7.158597022007435 13.966255128773467 
323 1 7.6173744591815264 6.381519314721448 13.347084202611999 
324 1 7.885679046839585 5.8051243765319605 12.5752153514001 
325 1 8.474492714247255 5.383216546951014 11.885800927115096 
326 1 9.159397713023177 5.949467167354971 12.344347955830678 
327 1 9.669458056607375 6.668415812325606 12.816525138462005 
328 1 10.575601010864625 6.374872925719629 13.121053495389521 
329 1 11.182180687955745 7.141445355633867 13.331832538549444 
330 1 11.221015868786694 7.5094395841375805 12.402815812910026 
331 1 3.3071596704007193 1.7844004809174532 8.183752921063249 
332 1 3.760240294658988 1.0777611030429606 7.640265352153998 
333 1 3.653412102437398 1.7740610982514973 6.930509017896065 
334 1 2.7240724470821864 2.140330455328023 6.977141228341265 
335 1 3.3398839143149535 2.9108188239323844 7.141834612148923 
336 1 2.4895529565382137 2.3862297164577306 7.183590217346767 
337 1 2.056295869118001 2.7825516018166816 6.374135302366518 
338 1 2.4123280550672423 2.4498308173792243 5.500901105732232 
339 1 1.871622970986228 2.2611434062724483 4.681123652432395 
340 1 1.2809381359473686 3.049445711851461 4.853376085430969 
341 1 15.604066683400687 7.851853598053174 11.419534429485367 
342 1 16.069612798479227 7.046279260703528 11.786026996584564 
343 1 16.88867273129672 7.050707925309859 12.359717865766573 
344 1 16.817888920361884 6.143232428630173 11.945618994679608 
345 1 17.088524688262723 5.364999919103314 12.512285071172855 
346 1 16.682116183758325 5.018039233512328 13.357536755655488 
347 1 16.549574818057117 5.400470712210808 14.271964965237055 
348 1 16.27079097914105 6.019169272249769 15.006465927091385 
349 1 15.996650031704164 6.959446815135471 15.208269998614318 
350 1 15.791482466399307 7.553289397595786 14.43028718556268 
351 1 15.81973173244445 1.607156715895926 -0.04361278917000993 
352 1 16.188095393622856 2.2816722731598063 0.5961816904343691 
353 1 17.136228507807257 2.5995225122437837 0.6000317944913051 
354 1 17.588122391998745 1.8587030996703517 0.10306246406468417 
355 1 16.786251586410444 1.3143071861247977 0.34930685579791926 
356 1 16.759454755063985 2.313796435520225 0.33189507321386336 
357 1 15.908740905292344 2.602918701162491 -0.1070744716484161 
358 1 15.914051868566517 2.863820149219904 -1.07242530324833 
359 1 16.88688070650669 2.942052500652534 -1.290332970073742 
360 1 17.093507460823908 2.5591814751893276 -2.190730194781307 
361 1 4.062646936574828 17.84354510671035 17.851336736837766 
362 1 4.132817764891962 17.74020888301915 16.85916856574653 
363 1 3.7052612236485896 16.84764172192452 16.715923087718505 
364 1 3.9037203427539424 15.909752887836017 17.00049032570635 
365 1 3.691361870289689 15.745761876110446 16.03715713970793 
366 1 3.4403577638725937 16.692808597316436 15.83690867800413 
367 1 2.479142722154802 16.886042548439164 15.640118729813269 
368 1 2.268681174015994 17.254396940786705 16.545668826932854 
369 1 2.7286776751687096 16.63449372369073 15.90996196023931 
370 1 3.0841059393379426 17.27550267085821 16.59024004946524 
371 1 15.334595623859245 10.97922641637005 18.607296683679028 
372 1 16.01464613793219 10.321399293757185 18.931016894762614 
373 1 15.822119886427839 11.267683696770963 19.190785004996613 
374 1 16.17995922664507 10.588945126318006 18.549485574486674 
375 1 16.0822421522047 11.512767580441988 18.919625340817124 
376 1 16.002145715568663 10.892955379180727 18.138973436313023 
377 1 16.800507476861082 11.29969207120002 18.583027218496294 
378 1 16.069138150415235 11.554501764456113 17.95043657000639 
379 1 15.365933336474585 10.892482771591597 17.69114167468959 
380 1 15.724396286018827 10.141854541344141 17.136108726334616 
381 1 8.061179982938906 8.404412845390826 13.521122446992782 
382 1 7.192835288302794 7.999332893767556 13.234962135121615 
383 1 7.978921894509197 8.61604947782862 13.276537398042633 
384 1 7.101384890665832 8.477607614424738 13.735626340779083 
385 1 8.061959787623064 8.20130949679522 13.704719747146164 
386 1 8.42572736179383 8.895879151467321 13.084037745803613 
387 1 9.399251226258546 8.723359963745015 12.934076366824485 
388 1 9.295774065343233 8.742321755249156 13.928527435319994 
389 1 9.846157259059742 8.335301653196877 13.199546656012496 
390 1 9.250502924184158 8.864983357946329 12.595697995338615 
391 1 14.389618503986446 3.297168985380262 18.376543549717578 
392 1 13.891748272086133 2.762292956044423 17.693877551275108 
393 1 14.807801387181385 2.7611750307228884 17.292822142924514 
394 1 14.133481215088603 2.0662239984182396 17.54249266222438 
395 1 13.190080691630886 1.945545461302343 17.85141359550549 
396 1 12.67390702139034 1.163566891588931 18.20080486422778 
397 1 13.402980314426253 1.1690565992218038 17.51639124915874 
398 1 14.19507248152038 0.6122781969246678 17.766566806645038 
399 1 14.392271116112761 1.5747775450593662 17.95286684248825 
400 1 13.790367761313927 0.8988345698243649 18.378088485531453 
401 1 2.0521999783724776 17.129324528142433 11.51495479679013 
402 1 2.278741044766161 16.170087837135 11.68390483633532 
403 1 1.6768367714301067 15.504476933546613 12.125122889868997 
404 1 1.9747476895166676 14.594066567850334 11.838065315648095 
405 1 1.941250032827707 15.481202145214034 11.37777369681073 
406 1 1.888054817141584 14.484931851300225 11.445713158782377 
407 1 1.2077854460052837 14.143841527284343 10.79695205209012 
408 1 1.8876755354640218 14.83760106170707 10.559365910546997 
409 1 1.397158510891475 14.951044888234737 11.423381851850893 
410 1 2.238841667930402 14.412396596085138 11.461163865049043 
411 1 13.143834299835476 7.102906322742262 11.181049998617043 
412 1 12.974055901660957 7.2993402169149615 10.215343510737085 
413 1 12.805314487533986 8.282901765151328 10.27963204773485 
414 1 11.815949898508443 8.422774483688299 10.239715477348682 
415 1 11.421193958650134 8.799245761395774 11.077830699145713 
416 1 11.333507647539452 7.85353893961171 10.764861502458745 
417 1 11.717955461407856 8.315635933885638 9.96569553327912 
418 1 11.829953138572368 7.99022090778904 10.904610641848743 
419 1 11.482929296485613 8.693131966706357 10.283731832196583 
420 1 12.16749588388318 9.328246706699856 9.92596395428992 
421 1 0.22266956424014817 11.517022577891757 16.435964669956007 
422 1 -0.47501779027376945 11.169132691029214 17.06222737998283 
423 1 -0.7693938944496301 10.215248222191713 17.12093963935718 
424 1 -1.6297174165646844 9.89447484114457 17.517106113591346 
425 1 -2.312637300907985 10.422209105862438 17.012015055057123 
426 1 -2.5995931239376087 10.920392205122052 17.830226491815054 
427 1 -1.7070093504092323 10.669340276181485 17.455703947488196 
428 1 -1.3741532016289693 10.094354412793198 18.203098114660243 
429 1 -0.46861370313822914 9.809681411836994 17.888519826789434 
430 1 -1.1228644355018678 9.356484643941954 17.283070680476442 
431 1 11.737475602044006 11.061164742970684 7.120333380562862 
432 1 12.500675007502544 11.452510900680988 7.6345073320161765 
433 1 11.553133140667741 11.472464506429734 7.315499081005577 
434 1 12.417922624642841 10.972055179710965 7.357088191827379 
435 1 12.287195222280383 10.168555316830806 6.776314297249524 
436 1 11.4418501445709 10.130752358925236 6.24343285080394 
437 1 11.88010706990712 10.976148404708352 6.548779200330363 
438 1 12.51538842598551 11.07729872345815 5.78315121518613 
439 1 12.058516679903772 11.847004628355522 6.22904473117211 
440 1 12.522801014162232 11.979777682210415 5.353367066085108 
441 1 1.2539052592560829 8.591628190398712 5.098198413928818 
442 1 0.6168440695328681 8.553748924893457 4.328316473763168 
443 1 0.6361611534910944 9.210833598839706 3.5747472456677647 
444 1 -0.20270415590792545 8.668059439031547 3.615992901577604 
445 1 -0.26709306255651427 7.697590244442492 3.8484657194601914 
446 1 -0.6826323246427188 7.41759519507163 2.9830583622042792 
447 1 -1.4789376976757844 8.021399482117387 2.946752221899408 
448 1 -2.1176296147267166 8.048480247655744 2.177766352567818 
449 1 -2.674059717123474 7.240400359270878 2.371137589143053 
450 1 -1.9673514295250496 7.85740234322098 2.024912304044837 
451 1 5.020808629263777 15.665804401361195 12.677357827748676 
452 1 4.339264582919563 16.38899871422712 12.565609455361711 
453 1 3.5374772279403928 16.461713566702876 11.972440349941568 
454 1 2.871403122595389 17.20471662032403 12.037951787862687 
455 1 3.0602741463152405 16.516844141850598 11.337124284294347 
456 1 3.1070943190275946 16.647852868025428 10.346849279513739 
457 1 2.8792273260642105 17.138226683694946 11.188044949036321 
458 1 2.629696731368881 17.42679411335744 12.112416801079089 
459 1 2.523632153547425 17.358656955271798 11.120394808873488 
460 1 3.2091421521436843 16.85321017428772 11.644417321192751 
461 1 11.431170370939213 16.39907530196409 15.984421022881952 
462 1 10.675066318904118 16.935834802948136 16.35884845323324 
463 1 10.87700800543031 16.59722599711359 15.439847021322352 
464 1 11.705610056548029 16.85692469868339 14.943888126567483 
465 1 11.985652477439299 15.90695970736692 14.805530771235526 
466 1 12.445680498165874 15.27660542515345 15.430852847482264 
467 1 12.734019270228329 14.32205409503716 15.506301576422755 
468 1 13.031845987151534 15.265127371535364 15.358274410531868 
469 1 12.382719578675722 14.514032732507411 15.237892729854263 
470 1 12.295711689116747 15.349710089970559 14.695607766594259 
471 1 11.005177505229545 1.383127040997408 10.471560178038802 
472 1 11.271803432201589 1.5465171337593768 11.421409793848342 
473 1 11.427518663952032 1.902777399501708 10.500089334043986 
474 1 10.842353345043556 2.6746022469984028 10.748822030594813 
475 1 10.96269613848856 3.6248764280142294 10.461599829223552 
476 1 10.969226689274656 4.608813843265404 10.639994096999366 
477 1 10.191954532638325 5.161270205423274 10.94105881168576 
478 1 10.413814454863076 6.035117735660412 11.373688756105793 