ITEM: TIMESTEP
1
ITEM: NUMBER OF ATOMS
10
ITEM: BOX BOUNDS pp pp pp
0 5.0
0 5.0
0 5.0
ITEM: ATOMS id type x y z
1 1 0.5570760963358659 0.4859793586163548 2.0253680349954415 
2 1 0.4913314078272881 3.217960567472712 1.2654731835532154 
3 1 0.5504493272180557 3.996274990906377 2.8778804364565547 
4 1 3.9650943242233474 1.4423138815895644 0.7731319712605398 
5 1 3.0853576136547485 2.511004887543356 3.7467986486121365 
6 1 0.15344815043147708 0.10416126901055911 3.1595708506702405 
7 1 3.3405087524806305 2.2943039787738204 3.5895462974877628 
8 1 2.750156269627258 3.046009369349976 3.386072706530868 
9 1 3.4646290598387672 1.4800624323196665 3.6979499187171916 
10 1 3.5536414042656075 2.0979907708055157 2.660406347590249 
ITEM: TIMESTEP
1000
ITEM: NUMBER OF ATOMS
10
ITEM: BOX BOUNDS pp pp pp
0 5.0
0 5.0
0 5.0
ITEM: ATOMS id type x y z
1 1 -2.0552725109108074 8.22148629008919 -6.78680604602106 
2 1 -3.714678020031661 4.825362749234087 -0.20083959061176804 
3 1 13.455407750320292 2.887090517686874 3.65719112178532 
4 1 -1.198523628598818 -5.206816177756302 3.592472703721379 
5 1 6.758125868844909 16.57990144588054 24.81741347412893 
6 1 -7.261451825867381 -0.83823216761306 12.757187444889949 
7 1 2.9514443193282514 -7.181209366596539 1.6351634051051276 
8 1 1.6455986512782252 18.035394321963 -5.5631794329740485 
9 1 9.888022753333134 -9.360194145791576 -3.2551679033497454 
10 1 1.4430190482069034 -7.286721960708307 -3.4712367807998525 
