ITEM: TIMESTEP
1
ITEM: NUMBER OF ATOMS
10
ITEM: BOX BOUNDS pp pp pp
0 5.0
0 5.0
0 5.0
ITEM: ATOMS id type x y z
1 1 0.08761977185955416 2.419422332679577 0.23982243836849282 
2 1 3.1264637514821043 2.76660699765592 2.164350645969047 
3 1 3.782106719164527 3.836774948870829 2.259806570536184 
4 1 0.14630338645549656 1.5321429432113591 3.9719076827076103 
5 1 2.9971364945998697 3.8928347800883554 3.401455495044348 
6 1 3.1234622913351426 2.8262750878662155 3.1686715917742685 
7 1 2.7089435214411335 0.5998022926960527 0.4963641675945487 
8 1 1.0012554520166743 2.668921531914174 0.4289179418395648 
9 1 3.4622748853537226 1.5957330002069945 1.7466869728507097 
10 1 0.0945974303928292 3.1002550920828273 0.4201685746390984 
ITEM: TIMESTEP
1000
ITEM: NUMBER OF ATOMS
10
ITEM: BOX BOUNDS pp pp pp
0 5.0
0 5.0
0 5.0
ITEM: ATOMS id type x y z
1 1 3.474381573750328 2.45762571343738 8.278008315857114 
2 1 -2.649920510104468 11.811859450946189 -2.8369939221664286 
3 1 15.195365740732235 -7.7962883091273465 -0.9937991537462081 
4 1 12.443176460187182 -10.718502346500596 14.409684620692717 
5 1 0.569826689651033 9.543220025031593 -7.321077173225055 
6 1 -5.901520350444203 0.14062212190024986 2.237539998028602 
7 1 1.0443599202238723 1.5524121868470002 7.354636507098248 
8 1 11.894478321308405 2.3251160296924995 -2.4983944993345393 
9 1 -6.703030030262546 4.704425714361414 0.6426243520608241 
10 1 -8.836954110940841 11.218278420683854 -0.9740769639414151 
